                         Program Version 5.0.4 -  RELEASE  -
|  1> ### Generated by AiiDA-ORCA Plugin ###
|  2> ! cc-pVTZ MP2 Opt AnFreq NoFrozenCore cc-pVTZ/C
|  3> %mp2
|  4> 	maxcore 3000
|  5> end
|  6>
|  7> %pal
|  8> 	nproc 4
|  9> end
| 10>
| 11> %scf
| 12> 	ConvForced true
| 13> 	convergence tight
| 14> end
| 15>
| 16> * xyzfile 0 1 aiida.coords.xyz
| 17>
| 18>                          ****END OF INPUT****
 Total Charge           Charge          ....    0
 Multiplicity           Mult            ....    1
 Number of Electrons    NEL             ....   24
MP2 TOTAL ENERGY:     -153.585522337 Eh
FINAL SINGLE POINT ENERGY      -153.585522337267
MP2 TOTAL ENERGY:     -153.586198377 Eh
FINAL SINGLE POINT ENERGY      -153.586198377324
MP2 TOTAL ENERGY:     -153.586277573 Eh
FINAL SINGLE POINT ENERGY      -153.586277572548
MP2 TOTAL ENERGY:     -153.586289722 Eh
FINAL SINGLE POINT ENERGY      -153.586289722091
MP2 TOTAL ENERGY:     -153.586292682 Eh
FINAL SINGLE POINT ENERGY      -153.586292681501
                    ***********************HURRAY********************

CARTESIAN COORDINATES (ANGSTROEM)
---------------------------------
  C      5.386994    6.101610    5.893113
  C      6.877238    6.028952    5.893122
  O      7.610601    6.991016    5.893105
  H      5.059664    7.132956    5.893110
  H      4.999358    5.584288    6.766782
  H      4.999368    5.584287    5.019440
  H      7.297134    5.012108    5.893104

 Multiplicity           Mult            ....    1
 Number of Electrons    NEL             ....   24
 Basis Dimension        Dim             ....  146

ORBITAL ENERGIES
----------------

  NO   OCC          E(Eh)            E(eV)
   0   2.0000     -20.555843      -559.3529
   1   2.0000     -11.332634      -308.3766
   2   2.0000     -11.238728      -305.8213
   3   2.0000      -1.391413       -37.8623
   4   2.0000      -1.025585       -27.9076
   5   2.0000      -0.803094       -21.8533
   6   2.0000      -0.675507       -18.3815
   7   2.0000      -0.624235       -16.9863
   8   2.0000      -0.607081       -16.5195
   9   2.0000      -0.562686       -15.3115
  10   2.0000      -0.502507       -13.6739
  11   2.0000      -0.426070       -11.5939
  12   0.0000       0.138925         3.7803
  13   0.0000       0.142901         3.8885
  14   0.0000       0.174936         4.7603
  15   0.0000       0.200429         5.4539
  16   0.0000       0.217782         5.9261

MULLIKEN ATOMIC CHARGES
-----------------------
   0 C :   -0.339793
   1 C :    0.106884
   2 O :   -0.229806
   3 H :    0.136182
   4 H :    0.125397
   5 H :    0.125398
   6 H :    0.075738
Sum of atomic charges:   -0.0000000

LOEWDIN ATOMIC CHARGES
----------------------
   0 C :    0.086676
   1 C :   -0.195364
   2 O :    0.218111
   3 H :   -0.019433
   4 H :   -0.015097
   5 H :   -0.015096
   6 H :   -0.059798

  Mayer bond orders larger than 0.100000
B(  0-C ,  1-C ) :   0.8768 B(  0-C ,  3-H ) :   0.9176 B(  0-C ,  4-H ) :   0.9108
B(  0-C ,  5-H ) :   0.9108 B(  1-C ,  2-O ) :   2.0434 B(  1-C ,  6-H ) :   0.8915

MP2 TOTAL ENERGY:     -153.586293011 Eh
FINAL SINGLE POINT ENERGY      -153.586293010707

DIPOLE MOMENT
-------------
                                X             Y             Z
Electronic contribution:      3.09938       1.35082       0.00002
Nuclear contribution   :     -3.85237      -2.06019      -0.00001
                        -----------------------------------------
Total Dipole Moment    :     -0.75299      -0.70937       0.00000
                        -----------------------------------------
Magnitude (a.u.)       :      1.03451
Magnitude (Debye)      :      2.62951

VIBRATIONAL FREQUENCIES
-----------------------

Scaling factor for frequencies =  1.000000000  (already applied!)

   0:         0.00 cm**-1
   1:         0.00 cm**-1
   2:         0.00 cm**-1
   3:         0.00 cm**-1
   4:         0.00 cm**-1
   5:         0.00 cm**-1
   6:       170.67 cm**-1
   7:       510.72 cm**-1
   8:       792.82 cm**-1
   9:       912.59 cm**-1
  10:      1149.76 cm**-1
  11:      1151.25 cm**-1
  12:      1394.77 cm**-1
  13:      1452.57 cm**-1
  14:      1486.77 cm**-1
  15:      1500.51 cm**-1
  16:      1794.14 cm**-1
  17:      2970.31 cm**-1
  18:      3093.04 cm**-1
  19:      3159.96 cm**-1
  20:      3207.61 cm**-1

IR SPECTRUM
-----------

 Mode   freq       eps      Int      T**2         TX        TY        TZ
       cm**-1   L/(mol*cm) km/mol    a.u.
----------------------------------------------------------------------------
  6:    170.67   0.000166    0.84  0.000303  ( 0.000001  0.000002 -0.017401)
  7:    510.72   0.002580   13.04  0.001577  ( 0.036772 -0.014983  0.000000)
  8:    792.82   0.000207    1.04  0.000081  (-0.000000  0.000001 -0.009016)
  9:    912.59   0.001368    6.91  0.000468  (-0.021600  0.001115  0.000000)
 10:   1149.76   0.004276   21.61  0.001161  ( 0.032212 -0.011089  0.000002)
 11:   1151.25   0.000008    0.04  0.000002  ( 0.000035 -0.000013 -0.001495)
 12:   1394.77   0.004866   24.59  0.001089  ( 0.032906  0.002415  0.000000)
 13:   1452.57   0.001578    7.97  0.000339  ( 0.017057 -0.006933  0.000000)
 14:   1486.77   0.004104   20.74  0.000861  (-0.011334 -0.027072  0.000001)
 15:   1500.51   0.001941    9.81  0.000404  (-0.000000  0.000001  0.020092)
 16:   1794.14   0.023570  119.11  0.004100  ( 0.049433  0.040694  0.000000)
 17:   2970.31   0.022252  112.45  0.002338  ( 0.020524 -0.043779  0.000000)
 18:   3093.04   0.000345    1.74  0.000035  (-0.003488 -0.004758  0.000000)
 19:   3159.96   0.000820    4.15  0.000081  (-0.000000 -0.000000  0.009001)
 20:   3207.61   0.001015    5.13  0.000099  ( 0.004268 -0.008976  0.000000)

--------------------------
THERMOCHEMISTRY AT 298.15K
--------------------------

Temperature         ... 298.15 K
Pressure            ... 1.00 atm
Total Mass          ... 44.05 AMU

Throughout the following assumptions are being made:
  (1) The electronic state is orbitally nondegenerate
  (2) There are no thermally accessible electronically excited states
  (3) Hindered rotations indicated by low frequency modes are not
      treated as such but are treated as vibrations and this may
      cause some error
  (4) All equations used are the standard statistical mechanics
      equations for an ideal gas
  (5) All vibrations are strictly harmonic

freq.     170.67  E(vib)   ...       0.38
freq.     510.72  E(vib)   ...       0.14
freq.     792.82  E(vib)   ...       0.05
freq.     912.59  E(vib)   ...       0.03
freq.    1149.76  E(vib)   ...       0.01
freq.    1151.25  E(vib)   ...       0.01
freq.    1394.77  E(vib)   ...       0.00
freq.    1452.57  E(vib)   ...       0.00
freq.    1486.77  E(vib)   ...       0.00
freq.    1500.51  E(vib)   ...       0.00
freq.    1794.14  E(vib)   ...       0.00
freq.    2970.31  E(vib)   ...       0.00
freq.    3093.04  E(vib)   ...       0.00
freq.    3159.96  E(vib)   ...       0.00
freq.    3207.61  E(vib)   ...       0.00

------------
INNER ENERGY
------------

The inner energy is: U= E(el) + E(ZPE) + E(vib) + E(rot) + E(trans)
    E(el)   - is the total energy from the electronic structure calculation
              = E(kin-el) + E(nuc-el) + E(el-el) + E(nuc-nuc)
    E(ZPE)  - the the zero temperature vibrational energy from the frequency calculation
    E(vib)  - the the finite temperature correction to E(ZPE) due to population
              of excited vibrational states
    E(rot)  - is the rotational thermal energy
    E(trans)- is the translational thermal energy

Summary of contributions to the inner energy U:
Electronic energy                ...   -153.58629301 Eh
Zero point energy                ...      0.05637896 Eh      35.38 kcal/mol
Thermal vibrational correction   ...      0.00102243 Eh       0.64 kcal/mol
Thermal rotational correction    ...      0.00141627 Eh       0.89 kcal/mol
Thermal translational correction ...      0.00141627 Eh       0.89 kcal/mol
-----------------------------------------------------------------------
Total thermal energy                   -153.52605908 Eh

Summary of corrections to the electronic energy:
(perhaps to be used in another calculation)
Total thermal correction                  0.00385497 Eh       2.42 kcal/mol
Non-thermal (ZPE) correction              0.05637896 Eh      35.38 kcal/mol
-----------------------------------------------------------------------
Total correction                          0.06023393 Eh      37.80 kcal/mol

--------
ENTHALPY
--------

The enthalpy is H = U + kB*T
                kB is Boltzmann's constant
Total free energy                 ...   -153.52605908 Eh
Thermal Enthalpy correction       ...      0.00094421 Eh       0.59 kcal/mol
-----------------------------------------------------------------------
Total Enthalpy                    ...   -153.52511487 Eh

Note: Rotational entropy computed according to Herzberg
Infrared and Raman Spectra, Chapter V,1, Van Nostrand Reinhold, 1945
Point Group:  Cs, Symmetry Number:   1
Rotational constants in cm-1:     1.920611     0.341354     0.306034

Vibrational entropy computed according to the QRRHO of S. Grimme
Chem.Eur.J. 2012 18 9955

-------
ENTROPY
-------

The entropy contributions are T*S = T*(S(el)+S(vib)+S(rot)+S(trans))
     S(el)   - electronic entropy
     S(vib)  - vibrational entropy
     S(rot)  - rotational entropy
     S(trans)- translational entropy
The entropies will be listed as multiplied by the temperature to get
units of energy

Electronic entropy                ...      0.00000000 Eh      0.00 kcal/mol
Vibrational entropy               ...      0.00169050 Eh      1.06 kcal/mol
Rotational entropy                ...      0.01026911 Eh      6.44 kcal/mol
Translational entropy             ...      0.01771022 Eh     11.11 kcal/mol
-----------------------------------------------------------------------
Final entropy term                ...      0.02966983 Eh     18.62 kcal/mol

In case the symmetry of your molecule has not been determined correctly
or in case you have a reason to use a different symmetry number we print
out the resulting rotational entropy values for sn=1,12 :
 --------------------------------------------------------
|  sn= 1 | S(rot)=       0.01026911 Eh      6.44 kcal/mol|
|  sn= 2 | S(rot)=       0.00961465 Eh      6.03 kcal/mol|
|  sn= 3 | S(rot)=       0.00923182 Eh      5.79 kcal/mol|
|  sn= 4 | S(rot)=       0.00896019 Eh      5.62 kcal/mol|
|  sn= 5 | S(rot)=       0.00874950 Eh      5.49 kcal/mol|
|  sn= 6 | S(rot)=       0.00857736 Eh      5.38 kcal/mol|
|  sn= 7 | S(rot)=       0.00843181 Eh      5.29 kcal/mol|
|  sn= 8 | S(rot)=       0.00830574 Eh      5.21 kcal/mol|
|  sn= 9 | S(rot)=       0.00819453 Eh      5.14 kcal/mol|
|  sn=10 | S(rot)=       0.00809505 Eh      5.08 kcal/mol|
|  sn=11 | S(rot)=       0.00800506 Eh      5.02 kcal/mol|
|  sn=12 | S(rot)=       0.00792290 Eh      4.97 kcal/mol|
 --------------------------------------------------------

-------------------
GIBBS FREE ENERGY
-------------------

The Gibbs free energy is G = H - T*S

Total enthalpy                    ...   -153.52511487 Eh
Total entropy correction          ...     -0.02966983 Eh    -18.62 kcal/mol
-----------------------------------------------------------------------
Final Gibbs free energy         ...   -153.55478470 Eh

For completeness - the Gibbs free energy minus the electronic energy
G-E(el)                           ...      0.03150831 Eh     19.77 kcal/mol

                             ****ORCA TERMINATED NORMALLY****
TOTAL RUN TIME: 0 days 0 hours 15 minutes 43 seconds 925 msec
